# vtk DataFile Version 3.0
vtk output
ASCII
DATASET UNSTRUCTURED_GRID

POINTS 4096 float
0.0 0.0 0.0
0.57723 0.0 0.0
0.42189 0.0 0.42189
0.0 0.0 0.57723
0.0 0.57723 0.0
0.42189 0.42189 0.0
0.37111 0.37111 0.37111
0.0 0.42189 0.42189
0.57723 0.0 0.0
0.66287 0.0 0.0
0.59577 0.0 0.32016
0.42189 0.0 0.42189
0.42189 0.42189 0.0
0.59577 0.32016 0.0
0.56256 0.30549 0.30549
0.37111 0.37111 0.37111
0.66287 0.0 0.0
0.74925 0.0 0.0
0.72162 0.0 0.25622
0.59577 0.0 0.32016
0.59577 0.32016 0.0
0.72162 0.25622 0.0
0.6977 0.24384 0.24384
0.56256 0.30549 0.30549
0.74925 0.0 0.0
0.82676 0.0 0.0
0.81034 0.0 0.20827
0.72162 0.0 0.25622
0.72162 0.25622 0.0
0.81034 0.20827 0.0
0.79355 0.20363 0.20363
0.6977 0.24384 0.24384
0.82676 0.0 0.0
0.89173 0.0 0.0
0.87722 0.0 0.17986
0.81034 0.0 0.20827
0.81034 0.20827 0.0
0.87722 0.17986 0.0
0.86446 0.17606 0.17606
0.79355 0.20363 0.20363
0.89173 0.0 0.0
0.93891 0.0 0.0
0.92798 0.0 0.15667
0.87722 0.0 0.17986
0.87722 0.17986 0.0
0.92798 0.15667 0.0
0.91828 0.15424 0.15424
0.86446 0.17606 0.17606
0.93891 0.0 0.0
0.98815 0.0 0.0
0.98617 0.0 0.14107
0.92798 0.0 0.15667
0.92798 0.15667 0.0
0.98617 0.14107 0.0
0.98513 0.14084 0.14084
0.91828 0.15424 0.15424
0.98815 0.0 0.0
1.125 0.0 0.0
1.125 0.0 0.14062
0.98617 0.0 0.14107
0.98617 0.14107 0.0
1.125 0.14062 0.0
1.125 0.14062 0.14062
0.98513 0.14084 0.14084
0.0 0.57723 0.0
0.42189 0.42189 0.0
0.37111 0.37111 0.37111
0.0 0.42189 0.42189
0.0 0.66287 0.0
0.32016 0.59577 0.0
0.30549 0.56256 0.30549
0.0 0.59577 0.32016
0.42189 0.42189 0.0
0.59577 0.32016 0.0
0.56256 0.30549 0.30549
0.37111 0.37111 0.37111
0.32016 0.59577 0.0
0.52418 0.52418 0.0
0.5092 0.5092 0.25916
0.30549 0.56256 0.30549
0.59577 0.32016 0.0
0.72162 0.25622 0.0
0.6977 0.24384 0.24384
0.56256 0.30549 0.30549
0.52418 0.52418 0.0
0.66016 0.45292 0.0
0.6517 0.44238 0.21731
0.5092 0.5092 0.25916
0.72162 0.25622 0.0
0.81034 0.20827 0.0
0.79355 0.20363 0.20363
0.6977 0.24384 0.24384
0.66016 0.45292 0.0
0.76554 0.39157 0.0
0.75498 0.38255 0.18999
0.6517 0.44238 0.21731
0.81034 0.20827 0.0
0.87722 0.17986 0.0
0.86446 0.17606 0.17606
0.79355 0.20363 0.20363
0.76554 0.39157 0.0
0.84264 0.34013 0.0
0.83352 0.33522 0.16768
0.75498 0.38255 0.18999
0.87722 0.17986 0.0
0.92798 0.15667 0.0
0.91828 0.15424 0.15424
0.86446 0.17606 0.17606
0.84264 0.34013 0.0
0.90098 0.30096 0.0
0.89317 0.29785 0.14897
0.83352 0.33522 0.16768
0.92798 0.15667 0.0
0.98617 0.14107 0.0
0.98513 0.14084 0.14084
0.91828 0.15424 0.15424
0.90098 0.30096 0.0
0.98447 0.28131 0.0
0.9844 0.28127 0.14064
0.89317 0.29785 0.14897
0.98617 0.14107 0.0
1.125 0.14062 0.0
1.125 0.14062 0.14062
0.98513 0.14084 0.14084
0.98447 0.28131 0.0
1.125 0.28125 0.0
1.125 0.28125 0.14062
0.9844 0.28127 0.14064
0.0 0.66287 0.0
0.32016 0.59577 0.0
0.30549 0.56256 0.30549
0.0 0.59577 0.32016
0.0 0.74925 0.0
0.25622 0.72162 0.0
0.24384 0.6977 0.24384
0.0 0.72162 0.25622
0.32016 0.59577 0.0
0.52418 0.52418 0.0
0.5092 0.5092 0.25916
0.30549 0.56256 0.30549
0.25622 0.72162 0.0
0.45292 0.66016 0.0
0.44238 0.6517 0.21731
0.24384 0.6977 0.24384
0.52418 0.52418 0.0
0.66016 0.45292 0.0
0.6517 0.44238 0.21731
0.5092 0.5092 0.25916
0.45292 0.66016 0.0
0.60005 0.60005 0.0
0.59355 0.59355 0.19289
0.44238 0.6517 0.21731
0.66016 0.45292 0.0
0.76554 0.39157 0.0
0.75498 0.38255 0.18999
0.6517 0.44238 0.21731
0.60005 0.60005 0.0
0.71337 0.5381 0.0
0.70528 0.52964 0.17451
0.59355 0.59355 0.19289
0.76554 0.39157 0.0
0.84264 0.34013 0.0
0.83352 0.33522 0.16768
0.75498 0.38255 0.18999
0.71337 0.5381 0.0
0.79898 0.47934 0.0
0.79062 0.47431 0.15799
0.70528 0.52964 0.17451
0.84264 0.34013 0.0
0.90098 0.30096 0.0
0.89317 0.29785 0.14897
0.83352 0.33522 0.16768
0.79898 0.47934 0.0
0.86313 0.43144 0.0
0.85706 0.42865 0.14288
0.79062 0.47431 0.15799
0.90098 0.30096 0.0
0.98447 0.28131 0.0
0.9844 0.28127 0.14064
0.89317 0.29785 0.14897
0.86313 0.43144 0.0
0.98438 0.42188 0.0
0.98438 0.42188 0.14063
0.85706 0.42865 0.14288
0.98447 0.28131 0.0
1.125 0.28125 0.0
1.125 0.28125 0.14062
0.9844 0.28127 0.14064
0.98438 0.42188 0.0
1.125 0.42188 0.0
1.125 0.42188 0.14062
0.98438 0.42188 0.14063
0.0 0.74925 0.0
0.25622 0.72162 0.0
0.24384 0.6977 0.24384
0.0 0.72162 0.25622
0.0 0.82676 0.0
0.20827 0.81034 0.0
0.20363 0.79355 0.20363
0.0 0.81034 0.20827
0.25622 0.72162 0.0
0.45292 0.66016 0.0
0.44238 0.6517 0.21731
0.24384 0.6977 0.24384
0.20827 0.81034 0.0
0.39157 0.76554 0.0
0.38255 0.75498 0.18999
0.20363 0.79355 0.20363
0.45292 0.66016 0.0
0.60005 0.60005 0.0
0.59355 0.59355 0.19289
0.44238 0.6517 0.21731
0.39157 0.76554 0.0
0.5381 0.71337 0.0
0.52964 0.70528 0.17451
0.38255 0.75498 0.18999
0.60005 0.60005 0.0
0.71337 0.5381 0.0
0.70528 0.52964 0.17451
0.59355 0.59355 0.19289
0.5381 0.71337 0.0
0.6559 0.6559 0.0
0.64809 0.64809 0.16126
0.52964 0.70528 0.17451
0.71337 0.5381 0.0
0.79898 0.47934 0.0
0.79062 0.47431 0.15799
0.70528 0.52964 0.17451
0.6559 0.6559 0.0
0.74839 0.59828 0.0
0.74127 0.5928 0.1483
0.64809 0.64809 0.16126
0.79898 0.47934 0.0
0.86313 0.43144 0.0
0.85706 0.42865 0.14288
0.79062 0.47431 0.15799
0.74839 0.59828 0.0
0.84401 0.56273 0.0
0.84385 0.56259 0.14066
0.74127 0.5928 0.1483
0.86313 0.43144 0.0
0.98438 0.42188 0.0
0.98438 0.42188 0.14063
0.85706 0.42865 0.14288
0.84401 0.56273 0.0
0.98438 0.5625 0.0
0.98438 0.5625 0.14062
0.84385 0.56259 0.14066
0.98438 0.42188 0.0
1.125 0.42188 0.0
1.125 0.42188 0.14062
0.98438 0.42188 0.14063
0.98438 0.5625 0.0
1.125 0.5625 0.0
1.125 0.5625 0.14062
0.98438 0.5625 0.14062
0.0 0.82676 0.0
0.20827 0.81034 0.0
0.20363 0.79355 0.20363
0.0 0.81034 0.20827
0.0 0.89173 0.0
0.17986 0.87722 0.0
0.17606 0.86446 0.17606
0.0 0.87722 0.17986
0.20827 0.81034 0.0
0.39157 0.76554 0.0
0.38255 0.75498 0.18999
0.20363 0.79355 0.20363
0.17986 0.87722 0.0
0.34013 0.84264 0.0
0.33522 0.83352 0.16768
0.17606 0.86446 0.17606
0.39157 0.76554 0.0
0.5381 0.71337 0.0
0.52964 0.70528 0.17451
0.38255 0.75498 0.18999
0.34013 0.84264 0.0
0.47934 0.79898 0.0
0.47431 0.79062 0.15799
0.33522 0.83352 0.16768
0.5381 0.71337 0.0
0.6559 0.6559 0.0
0.64809 0.64809 0.16126
0.52964 0.70528 0.17451
0.47934 0.79898 0.0
0.59828 0.74839 0.0
0.5928 0.74127 0.1483
0.47431 0.79062 0.15799
0.6559 0.6559 0.0
0.74839 0.59828 0.0
0.74127 0.5928 0.1483
0.64809 0.64809 0.16126
0.59828 0.74839 0.0
0.70429 0.70429 0.0
0.70365 0.70365 0.14077
0.5928 0.74127 0.1483
0.74839 0.59828 0.0
0.84401 0.56273 0.0
0.84385 0.56259 0.14066
0.74127 0.5928 0.1483
0.70429 0.70429 0.0
0.84375 0.70313 0.0
0.84375 0.70313 0.14063
0.70365 0.70365 0.14077
0.84401 0.56273 0.0
0.98438 0.5625 0.0
0.98438 0.5625 0.14062
0.84385 0.56259 0.14066
0.84375 0.70313 0.0
0.98438 0.70312 0.0
0.98438 0.70312 0.14062
0.84375 0.70313 0.14063
0.98438 0.5625 0.0
1.125 0.5625 0.0
1.125 0.5625 0.14062
0.98438 0.5625 0.14062
0.98438 0.70312 0.0
1.125 0.70312 0.0
1.125 0.70312 0.14062
0.98438 0.70312 0.14062
0.0 0.89173 0.0
0.17986 0.87722 0.0
0.17606 0.86446 0.17606
0.0 0.87722 0.17986
0.0 0.93891 0.0
0.15667 0.92798 0.0
0.15424 0.91828 0.15424
0.0 0.92798 0.15667
0.17986 0.87722 0.0
0.34013 0.84264 0.0
0.33522 0.83352 0.16768
0.17606 0.86446 0.17606
0.15667 0.92798 0.0
0.30096 0.90098 0.0
0.29785 0.89317 0.14897
0.15424 0.91828 0.15424
0.34013 0.84264 0.0
0.47934 0.79898 0.0
0.47431 0.79062 0.15799
0.33522 0.83352 0.16768
0.30096 0.90098 0.0
0.43144 0.86313 0.0
0.42865 0.85706 0.14288
0.29785 0.89317 0.14897
0.47934 0.79898 0.0
0.59828 0.74839 0.0
0.5928 0.74127 0.1483
0.47431 0.79062 0.15799
0.43144 0.86313 0.0
0.56273 0.84401 0.0
0.56259 0.84385 0.14066
0.42865 0.85706 0.14288
0.59828 0.74839 0.0
0.70429 0.70429 0.0
0.70365 0.70365 0.14077
0.5928 0.74127 0.1483
0.56273 0.84401 0.0
0.70313 0.84375 0.0
0.70313 0.84375 0.14063
0.56259 0.84385 0.14066
0.70429 0.70429 0.0
0.84375 0.70313 0.0
0.84375 0.70313 0.14063
0.70365 0.70365 0.14077
0.70313 0.84375 0.0
0.84375 0.84375 0.0
0.84375 0.84375 0.14062
0.70313 0.84375 0.14063
0.84375 0.70313 0.0
0.98438 0.70312 0.0
0.98438 0.70312 0.14062
0.84375 0.70313 0.14063
0.84375 0.84375 0.0
0.98438 0.84375 0.0
0.98438 0.84375 0.14062
0.84375 0.84375 0.14062
0.98438 0.70312 0.0
1.125 0.70312 0.0
1.125 0.70312 0.14062
0.98438 0.70312 0.14062
0.98438 0.84375 0.0
1.125 0.84375 0.0
1.125 0.84375 0.14062
0.98438 0.84375 0.14062
0.0 0.93891 0.0
0.15667 0.92798 0.0
0.15424 0.91828 0.15424
0.0 0.92798 0.15667
0.0 0.98815 0.0
0.14107 0.98617 0.0
0.14084 0.98513 0.14084
0.0 0.98617 0.14107
0.15667 0.92798 0.0
0.30096 0.90098 0.0
0.29785 0.89317 0.14897
0.15424 0.91828 0.15424
0.14107 0.98617 0.0
0.28131 0.98447 0.0
0.28127 0.9844 0.14064
0.14084 0.98513 0.14084
0.30096 0.90098 0.0
0.43144 0.86313 0.0
0.42865 0.85706 0.14288
0.29785 0.89317 0.14897
0.28131 0.98447 0.0
0.42188 0.98438 0.0
0.42188 0.98438 0.14063
0.28127 0.9844 0.14064
0.43144 0.86313 0.0
0.56273 0.84401 0.0
0.56259 0.84385 0.14066
0.42865 0.85706 0.14288
0.42188 0.98438 0.0
0.5625 0.98438 0.0
0.5625 0.98438 0.14062
0.42188 0.98438 0.14063
0.56273 0.84401 0.0
0.70313 0.84375 0.0
0.70313 0.84375 0.14063
0.56259 0.84385 0.14066
0.5625 0.98438 0.0
0.70312 0.98438 0.0
0.70312 0.98438 0.14062
0.5625 0.98438 0.14062
0.70313 0.84375 0.0
0.84375 0.84375 0.0
0.84375 0.84375 0.14062
0.70313 0.84375 0.14063
0.70312 0.98438 0.0
0.84375 0.98438 0.0
0.84375 0.98438 0.14062
0.70312 0.98438 0.14062
0.84375 0.84375 0.0
0.98438 0.84375 0.0
0.98438 0.84375 0.14062
0.84375 0.84375 0.14062
0.84375 0.98438 0.0
0.98438 0.98438 0.0
0.98438 0.98438 0.14062
0.84375 0.98438 0.14062
0.98438 0.84375 0.0
1.125 0.84375 0.0
1.125 0.84375 0.14062
0.98438 0.84375 0.14062
0.98438 0.98438 0.0
1.125 0.98438 0.0
1.125 0.98438 0.14062
0.98438 0.98438 0.14062
0.0 0.98815 0.0
0.14107 0.98617 0.0
0.14084 0.98513 0.14084
0.0 0.98617 0.14107
0.0 1.125 0.0
0.14062 1.125 0.0
0.14062 1.125 0.14062
0.0 1.125 0.14062
0.14107 0.98617 0.0
0.28131 0.98447 0.0
0.28127 0.9844 0.14064
0.14084 0.98513 0.14084
0.14062 1.125 0.0
0.28125 1.125 0.0
0.28125 1.125 0.14062
0.14062 1.125 0.14062
0.28131 0.98447 0.0
0.42188 0.98438 0.0
0.42188 0.98438 0.14063
0.28127 0.9844 0.14064
0.28125 1.125 0.0
[...]
CELL_DATA 512

SCALARS lulesh.rank float 1
LOOKUP_TABLE default
0
1
2
3
4
5
6
7
8
9
10
11
12
13
14
15
16
17
18
19
20
21
22
23
24
25
26
27
28
29
30
31
32
33
34
35
36
37
38
39
40
41
42
43
44
45
46
47
48
49
50
51
52
53
54
55
56
57
58
59
60
61
62
63
64
65
66
67
68
69
70
71
72
73
74
75
76
77
78
79
80
81
82
83
84
85
86
87
88
89
90
91
92
93
94
95
96
97
98
99
100
101
102
103
104
105
106
107
108
109
110
111
112
113
114
115
116
117
118
119
120
121
122
123
124
125
126
127
128
129
130
131
132
133
134
135
136
137
138
139
140
141
142
143
144
145
146
147
148
149
150
151
152
153
154
155
156
157
158
159
160
161
162
163
164
165
166
167
168
169
170
171
172
173
174
175
176
177
178
179
180
181
182
183
184
185
186
187
188
189
190
191
192
193
194
195
196
197
198
199
200
201
202
203
204
205
206
207
208
209
210
211
212
213
214
215
216
217
218
219
220
221
222
223
224
225
226
227
228
229
230
231
232
233
234
235
236
237
238
239
240
241
242
243
244
245
246
247
248
249
250
251
252
253
254
255
256
257
258
259
260
261
262
263
264
265
266
267
268
269
270
271
272
273
274
275
276
277
278
279
280
281
282
283
284
285
286
287
288
289
290
291
292
293
294
295
296
297
298
299
300
301
302
303
304
305
306
307
308
309
310
311
312
313
314
315
316
317
318
319
320
321
322
323
324
325
326
327
328
329
330
331
332
333
334
335
336
337
338
339
340
341
342
343
344
345
346
347
348
349
350
351
352
353
354
355
356
357
358
359
360
361
362
363
364
365
366
367
368
369
370
371
372
373
374
375
376
377
378
379
380
381
382
383
384
385
386
387
388
389
390
391
392
393
394
395
396
397
398
399
400
401
402
403
404
405
406
407
408
409
410
411
412
413
414
415
416
417
418
419
420
421
422
423
424
425
426
427
428
429
430
431
432
433
434
435
436
437
438
439
440
441
442
443
444
445
446
447
448
449
450
451
452
453
454
455
456
457
458
459
460
461
462
463
464
465
466
467
468
469
470
471
472
473
474
475
476
477
478
479
480
481
482
483
484
485
486
487
488
489
490
491
492
493
494
495
496
497
498
499
500
501
502
503
504
505
506
507
508
509
510
511

SCALARS cpu.time.user_ticks.delta float 1
LOOKUP_TABLE default
2
3
2
2
0
0
3
3
3
1
3
3
0
3
3
4
0
3
2
3
1
2
1
3
3
3
1
3
3
3
3
3
2
5
3
5
2
1
4
3
4
1
4
3
0
4
4
4
1
3
3
3
2
3
2
4
4
4
1
4
3
4
3
3
3
4
3
4
1
1
4
3
4
1
4
3
1
4
4
5
1
4
4
4
2
3
2
5
4
4
1
4
3
4
3
3
3
4
4
4
1
0
4
4
4
1
3
3
0
3
3
5
0
4
4
4
3
3
2
5
4
4
1
4
3
4
3
3
3
4
3
5
1
0
3
3
4
0
3
4
0
3
4
4
1
4
4
4
1
4
0
4
4
3
1
2
3
4
3
3
3
4
4
4
1
0
4
3
4
1
3
3
0
3
4
5
1
4
4
4
1
3
1
4
4
4
1
3
3
4
4
2
3
4
3
5
2
1
3
3
4
1
3
3
1
3
4
4
0
4
4
4
2
3
2
4
4
4
1
3
4
4
3
3
2
5
4
4
1
1
3
3
4
1
3
3
0
3
4
4
2
4
3
4
1
4
1
4
4
4
1
3
3
4
4
3
3
3
3
3
0
0
4
3
3
0
3
3
1
3
3
3
0
3
3
4
2
0
0
4
3
4
1
3
3
3
3
3
3
4
3
4
1
0
3
3
4
0
3
3
0
3
3
4
1
3
4
3
1
2
2
3
4
4
0
3
3
3
3
3
3
3
3
5
0
0
4
3
3
0
3
3
1
3
3
3
1
3
4
4
2
1
2
3
4
4
2
3
4
4
4
3
3
4
3
4
1
0
4
3
4
1
3
3
1
3
4
4
1
4
4
3
2
1
1
4
4
3
2
3
4
4
3
3
2
4
4
4
1
1
4
3
3
1
3
3
1
3
4
3
1
3
3
4
2
2
1
4
3
4
2
3
3
4
3
3
2
4
3
5
1
0
3
3
3
1
3
3
1
3
3
3
1
3
4
3
2
1
1
3
4
4
1
4
4
3
3
3
3
4
3
4
1
1
3
3
3
1
3
3
0
4
3
4
1
3
3
4
2
2
1
4
3
3
1
3
3
3
3
3
2
4
3
5
1
1
3
2
3
1
3
3
0
4
4
4
1
3
4
4
1
2
1
3
4
3
2
3
3
3
3
3

SCALARS mem.rss_pages float 1
LOOKUP_TABLE default
26216
26202
26209
26209
26227
26209
26198
26250
26209
26210
26198
26232
26256
26202
26210
26201
26197
26218
26241
26202
26198
26209
26209
26217
26197
26203
26198
26232
26199
26202
26211
26226
26168
26197
26185
26169
26197
26182
26197
26172
26180
26181
26169
26174
26182
26181
26181
26180
26180
26181
26181
26173
26197
26173
26197
26172
26175
26180
26180
26172
26195
26171
26179
26190
26326
26318
26326
26327
26327
26327
26327
26327
26328
26318
26328
26326
26326
26334
26327
26326
26327
26319
26326
26318
26327
26327
26327
26318
26327
26318
26327
26318
26327
26343
26327
26328
26326
26325
26313
26326
26329
26317
26326
26326
26326
26325
26326
26326
26341
26325
26326
26326
26326
26325
26317
26318
26326
26341
26325
26325
26313
26317
26314
26318
26313
26325
26328
26316
26324
26325
26325
26325
26313
26326
26326
26324
26341
26318
26325
26325
26325
26325
26329
26325
26325
26326
26325
26317
26325
26317
26325
26324
26325
26317
26313
26316
26324
26341
26325
26325
26324
26324
26324
26312
26324
26324
26324
26316
26324
26324
26325
26313
26324
26324
26312
26316
26324
26316
26324
26324
26340
26324
26340
26316
26323
26324
26328
26316
26340
26332
26312
26323
26328
26342
26358
26325
26326
26318
26313
26324
26325
26327
26341
26318
26326
26326
26342
26326
26325
26326
26326
26325
26325
26326
26326
26326
26325
26318
26341
26318
26325
26325
26326
26325
26312
26317
26326
26325
26313
26325
26325
26324
26324
26341
26324
26325
26324
26318
26327
26317
26340
26317
26314
26324
26312
26317
26325
26325
26323
26317
26312
26316
26357
26317
26313
26316
26326
26325
26326
26314
26326
26319
26315
26325
26325
26359
26325
26314
26326
26342
26342
26325
26342
26326
26341
26326
26325
26326
26326
26326
26326
26325
26342
26326
26326
26326
26326
26358
26341
26325
26341
26357
26326
26341
26325
26317
26325
26341
26313
26317
26325
26349
26314
26333
26326
26317
26325
26358
26325
26350
26325
26325
26324
26317
26325
26317
26314
26365
26357
26316
26373
26326
26325
26326
26326
26326
26358
26325
26326
26326
26326
26326
26314
26326
26326
26342
26326
26358
26326
26326
26358
26326
26358
26334
26342
26318
26374
26326
26326
26318
26326
26342
26326
26325
26325
26333
26325
26325
26325
26326
26325
26325
26313
26326
26325
26317
26357
26341
26325
26317
26325
26341
26326
26333
26314
26326
26313
26325
26326
26333
26326
26326
26326
26316
26324
26357
26314
26325
26324
26325
26313
26316
26357
26317
26325
26324
26325
26333
26325
26325
26325
26341
26326
26326
26325
26317
26341
26358
26313
26341
26313
26325
26313
26325
26325
26325
26324
26324
26325
26340
26324
26323
26324
26340
26340
26340
26324
26324
26325
26323
26312
26372
26325
26325
26324
26324
26312
26324
26324
26324
26311
26324
26312
26316
26312
26324
26312
26323
26171
26169
26177
26177
26177
26169
26166
26164
26193
26185
26210
26170
26194
26170
26178
26185
26164
26169
26178
26178
26194
26171
26182
26169
26181
26178
26178
26178
26178
26170
26166
26169
26180
26177
26193
26165
26177
26197
26165
26183
26180
26169
26193
26177
26165
26185
26165
26169
26208
26170
26193
26177
26177
26169
26177
26184
26191
26208
26179
26168
26164
26176
26164
26179

SCALARS rank float 1
LOOKUP_TABLE default
0
1
2
3
4
5
6
7
8
9
10
11
12
13
14
15
16
17
18
19
20
21
22
23
24
25
26
27
28
29
30
31
32
33
34
35
36
37
38
39
40
41
42
43
44
45
46
47
48
49
50
51
52
53
54
55
56
57
58
59
60
61
62
63
64
65
66
67
68
69
70
71
72
73
74
75
76
77
78
79
80
81
82
83
84
85
86
87
88
89
90
91
92
93
94
95
96
97
98
99
100
101
102
103
104
105
106
107
108
109
110
111
112
113
114
115
116
117
118
119
120
121
122
123
124
125
126
127
128
129
130
131
132
133
134
135
136
137
138
139
140
141
142
143
144
145
146
147
148
149
150
151
152
153
154
155
156
157
158
159
160
161
162
163
164
165
166
167
168
169
170
171
172
173
174
175
176
177
178
179
180
181
182
183
184
185
186
187
188
189
190
191
192
193
194
195
196
197
198
199
200
201
202
203
204
205
206
207
208
209
210
211
212
213
214
215
216
217
218
219
220
221
222
223
224
225
226
227
228
229
230
231
232
233
234
235
236
237
238
239
240
241
242
243
244
245
246
247
248
249
250
251
252
253
254
255
256
257
258
259
260
261
262
263
264
265
266
267
268
269
270
271
272
273
274
275
276
277
278
279
280
281
282
283
284
285
286
287
288
289
290
291
292
293
294
295
296
297
298
299
300
301
302
303
304
305
306
307
308
309
310
311
312
313
314
315
316
317
318
319
320
321
322
323
324
325
326
327
328
329
330
331
332
333
334
335
336
337
338
339
340
341
342
343
344
345
346
347
348
349
350
351
352
353
354
355
356
357
358
359
360
361
362
363
364
365
366
367
368
369
370
371
372
373
374
375
376
377
378
379
380
381
382
383
384
385
386
387
388
389
390
391
392
393
394
395
396
397
398
399
400
401
402
403
404
405
406
407
408
409
410
411
412
413
414
415
416
417
418
419
420
421
422
423
424
425
426
427
428
429
430
431
432
433
434
435
436
437
438
439
440
441
442
443
444
445
446
447
448
449
450
451
452
453
454
455
456
457
458
459
460
461
462
463
464
465
466
467
468
469
470
471
472
473
474
475
476
477
478
479
480
481
482
483
484
485
486
487
488
489
490
491
492
493
494
495
496
497
498
499
500
501
502
503
504
505
506
507
508
509
510
511

SCALARS sos.alpine.time_ms(cycle) float 1
LOOKUP_TABLE default
2.00000000000000000
2.00000000000000000
2.00000000000000000
2.00000000000000000
2.00000000000000000
2.00000000000000000
1.00000000000000000
2.00000000000000000
2.00000000000000000
2.00000000000000000
2.00000000000000000
2.00000000000000000
2.00000000000000000
2.00000000000000000
3.00000000000000000
2.00000000000000000
2.00000000000000000
2.00000000000000000
2.00000000000000000
2.00000000000000000
3.00000000000000000
1.00000000000000000
1.00000000000000000
3.00000000000000000
3.00000000000000000
2.00000000000000000
2.00000000000000000
2.00000000000000000
2.00000000000000000
2.00000000000000000
2.00000000000000000
2.00000000000000000
2.00000000000000000
2.00000000000000000
2.00000000000000000
2.00000000000000000
2.00000000000000000
2.00000000000000000
2.00000000000000000
2.00000000000000000
2.00000000000000000
2.00000000000000000
3.00000000000000000
1.00000000000000000
2.00000000000000000
2.00000000000000000
2.00000000000000000
2.00000000000000000
2.00000000000000000
2.00000000000000000
2.00000000000000000
2.00000000000000000
3.00000000000000000
1.00000000000000000
2.00000000000000000
2.00000000000000000
2.00000000000000000
2.00000000000000000
2.00000000000000000
2.00000000000000000
2.00000000000000000
2.00000000000000000
2.00000000000000000
2.00000000000000000
2.00000000000000000
2.00000000000000000
1.00000000000000000
2.00000000000000000
2.00000000000000000
2.00000000000000000
2.00000000000000000
2.00000000000000000
2.00000000000000000
2.00000000000000000
2.00000000000000000
2.00000000000000000
2.00000000000000000
2.00000000000000000
2.00000000000000000
2.00000000000000000
2.00000000000000000
2.00000000000000000
2.00000000000000000
2.00000000000000000
3.00000000000000000
1.00000000000000000
2.00000000000000000
3.00000000000000000
2.00000000000000000
2.00000000000000000
2.00000000000000000
2.00000000000000000
3.00000000000000000
2.00000000000000000
2.00000000000000000
1.00000000000000000
2.00000000000000000
2.00000000000000000
1.00000000000000000
2.00000000000000000
2.00000000000000000
2.00000000000000000
2.00000000000000000
2.00000000000000000
2.00000000000000000
2.00000000000000000
3.00000000000000000
1.00000000000000000
2.00000000000000000
2.00000000000000000
2.00000000000000000
3.00000000000000000
1.00000000000000000
2.00000000000000000
2.00000000000000000
2.00000000000000000
2.00000000000000000
1.00000000000000000
2.00000000000000000
3.00000000000000000
2.00000000000000000
2.00000000000000000
2.00000000000000000
2.00000000000000000
2.00000000000000000
2.00000000000000000
2.00000000000000000
2.00000000000000000
2.00000000000000000
2.00000000000000000
2.00000000000000000
3.00000000000000000
2.00000000000000000
2.00000000000000000
2.00000000000000000
2.00000000000000000
2.00000000000000000
2.00000000000000000
2.00000000000000000
2.00000000000000000
2.00000000000000000
2.00000000000000000
2.00000000000000000
3.00000000000000000
2.00000000000000000
2.00000000000000000
2.00000000000000000
2.00000000000000000
2.00000000000000000
1.00000000000000000
2.00000000000000000
2.00000000000000000
2.00000000000000000
2.00000000000000000
2.00000000000000000
2.00000000000000000
2.00000000000000000
2.00000000000000000
2.00000000000000000
2.00000000000000000
2.00000000000000000
2.00000000000000000
1.00000000000000000
3.00000000000000000
2.00000000000000000
2.00000000000000000
2.00000000000000000
2.00000000000000000
2.00000000000000000
2.00000000000000000
2.00000000000000000
1.00000000000000000
2.00000000000000000
2.00000000000000000
2.00000000000000000
2.00000000000000000
1.00000000000000000
3.00000000000000000
2.00000000000000000
2.00000000000000000
3.00000000000000000
1.00000000000000000
2.00000000000000000
3.00000000000000000
2.00000000000000000
2.00000000000000000
2.00000000000000000
2.00000000000000000
2.00000000000000000
2.00000000000000000
2.00000000000000000
2.00000000000000000
3.00000000000000000
2.00000000000000000
1.00000000000000000
3.00000000000000000
2.00000000000000000
2.00000000000000000
2.00000000000000000
2.00000000000000000
2.00000000000000000
2.00000000000000000
3.00000000000000000
2.00000000000000000
2.00000000000000000
2.00000000000000000
2.00000000000000000
2.00000000000000000
1.00000000000000000
2.00000000000000000
2.00000000000000000
2.00000000000000000
2.00000000000000000
1.00000000000000000
2.00000000000000000
2.00000000000000000
2.00000000000000000
2.00000000000000000
2.00000000000000000
2.00000000000000000
2.00000000000000000
2.00000000000000000
2.00000000000000000
2.00000000000000000
3.00000000000000000
2.00000000000000000
2.00000000000000000
2.00000000000000000
1.00000000000000000
1.00000000000000000
2.00000000000000000
2.00000000000000000
2.00000000000000000
1.00000000000000000
2.00000000000000000
2.00000000000000000
2.00000000000000000
2.00000000000000000
2.00000000000000000
3.00000000000000000
2.00000000000000000
3.00000000000000000
3.00000000000000000
2.00000000000000000
3.00000000000000000
1.00000000000000000
2.00000000000000000
2.00000000000000000
2.00000000000000000
2.00000000000000000
2.00000000000000000
2.00000000000000000
2.00000000000000000
2.00000000000000000
2.00000000000000000
2.00000000000000000
2.00000000000000000
2.00000000000000000
2.00000000000000000
2.00000000000000000
2.00000000000000000
1.00000000000000000
2.00000000000000000
2.00000000000000000
1.00000000000000000
2.00000000000000000
3.00000000000000000
2.00000000000000000
2.00000000000000000
2.00000000000000000
3.00000000000000000
2.00000000000000000
1.00000000000000000
2.00000000000000000
2.00000000000000000
1.00000000000000000
3.00000000000000000
0.00000000000000000
2.00000000000000000
2.00000000000000000
3.00000000000000000
2.00000000000000000
2.00000000000000000
2.00000000000000000
2.00000000000000000
4.00000000000000000
2.00000000000000000
2.00000000000000000
2.00000000000000000
2.00000000000000000
2.00000000000000000
2.00000000000000000
2.00000000000000000
2.00000000000000000
1.00000000000000000
2.00000000000000000
2.00000000000000000
2.00000000000000000
3.00000000000000000
2.00000000000000000
2.00000000000000000
3.00000000000000000
2.00000000000000000
2.00000000000000000
2.00000000000000000
2.00000000000000000
2.00000000000000000
1.00000000000000000
1.00000000000000000
2.00000000000000000
2.00000000000000000
2.00000000000000000
2.00000000000000000
2.00000000000000000
2.00000000000000000
2.00000000000000000
2.00000000000000000
2.00000000000000000
2.00000000000000000
2.00000000000000000
2.00000000000000000
2.00000000000000000
2.00000000000000000
2.00000000000000000
1.00000000000000000
2.00000000000000000
2.00000000000000000
2.00000000000000000
2.00000000000000000
2.00000000000000000
2.00000000000000000
2.00000000000000000
2.00000000000000000
2.00000000000000000
3.00000000000000000
2.00000000000000000
2.00000000000000000
2.00000000000000000
2.00000000000000000
2.00000000000000000
3.00000000000000000
2.00000000000000000
1.00000000000000000
2.00000000000000000
2.00000000000000000
2.00000000000000000
2.00000000000000000
2.00000000000000000
2.00000000000000000
2.00000000000000000
2.00000000000000000
2.00000000000000000
2.00000000000000000
2.00000000000000000
1.00000000000000000
2.00000000000000000
2.00000000000000000
2.00000000000000000
2.00000000000000000
2.00000000000000000
2.00000000000000000
2.00000000000000000
2.00000000000000000
2.00000000000000000
2.00000000000000000
2.00000000000000000
2.00000000000000000
2.00000000000000000
2.00000000000000000
2.00000000000000000
2.00000000000000000
1.00000000000000000
3.00000000000000000
0.00000000000000000
2.00000000000000000
2.00000000000000000
2.00000000000000000
2.00000000000000000
2.00000000000000000
2.00000000000000000
2.00000000000000000
2.00000000000000000
3.00000000000000000
2.00000000000000000
2.00000000000000000
2.00000000000000000
2.00000000000000000
2.00000000000000000
2.00000000000000000
2.00000000000000000
2.00000000000000000
2.00000000000000000
1.00000000000000000
2.00000000000000000
2.00000000000000000
2.00000000000000000
2.00000000000000000
3.00000000000000000
3.00000000000000000
2.00000000000000000
2.00000000000000000
3.00000000000000000
3.00000000000000000
2.00000000000000000
3.00000000000000000
0.00000000000000000
1.00000000000000000
2.00000000000000000
2.00000000000000000
2.00000000000000000
2.00000000000000000
2.00000000000000000
2.00000000000000000
2.00000000000000000
2.00000000000000000
2.00000000000000000
2.00000000000000000
2.00000000000000000
2.00000000000000000
2.00000000000000000
2.00000000000000000
2.00000000000000000
2.00000000000000000
2.00000000000000000
2.00000000000000000
2.00000000000000000
2.00000000000000000
2.00000000000000000
2.00000000000000000
2.00000000000000000
3.00000000000000000
2.00000000000000000
1.00000000000000000
3.00000000000000000
2.00000000000000000
2.00000000000000000
3.00000000000000000
2.00000000000000000
1.00000000000000000
2.00000000000000000
2.00000000000000000
2.00000000000000000
2.00000000000000000
2.00000000000000000
2.00000000000000000
2.00000000000000000
2.00000000000000000
2.00000000000000000
2.00000000000000000
2.00000000000000000
2.00000000000000000
2.00000000000000000
1.00000000000000000
2.00000000000000000
2.00000000000000000
2.00000000000000000
2.00000000000000000
2.00000000000000000
2.00000000000000000
2.00000000000000000
2.00000000000000000
2.00000000000000000
3.00000000000000000
3.00000000000000000
2.00000000000000000
4.00000000000000000
3.00000000000000000
2.00000000000000000
3.00000000000000000
2.00000000000000000
1.00000000000000000
2.00000000000000000
2.00000000000000000
2.00000000000000000
2.00000000000000000
2.00000000000000000
2.00000000000000000
2.00000000000000000
2.00000000000000000
2.00000000000000000
2.00000000000000000
2.00000000000000000
2.00000000000000000
2.00000000000000000
1.00000000000000000
1.00000000000000000
2.00000000000000000
2.00000000000000000
2.00000000000000000
2.00000000000000000
2.00000000000000000
2.00000000000000000
2.00000000000000000
2.00000000000000000
2.00000000000000000
2.00000000000000000
2.00000000000000000
3.00000000000000000
3.00000000000000000
1.00000000000000000
3.00000000000000000
2.00000000000000000
1.00000000000000000
2.00000000000000000
3.00000000000000000
1.00000000000000000
2.00000000000000000
2.00000000000000000
2.00000000000000000
2.00000000000000000
2.00000000000000000
1.00000000000000000

SCALARS io.bytes.read.delta float 1
LOOKUP_TABLE default
213823
213819
213819
213823
213820
213822
213819
213823
213823
213822
213822
213823
213822
213823
213815
213823
213820
213819
213819
213822
213819
213819
213819
213823
213819
213819
213823
213823
213822
213822
213823
213823
213821
213819
213817
213822
213818
213822
213818
213822
213822
213821
213821
213821
213821
213822
213814
213822
213818
213818
213818
213822
213818
213818
213818
213822
213818
213818
213821
213821
213821
213821
213821
213821
213821
213818
213818
213822
213818
213821
213818
213821
213822
213821
213821
213821
213821
213822
213814
213822
213818
213818
213818
213821
213818
213818
213818
213822
213818
213818
213821
213822
213820
213821
213821
213821
213821
213818
213817
213822
213818
213821
213818
213820
213822
213821
213821
213821
213821
213821
213814
213822
213818
213817
213818
213821
213818
213818
213818
213822
213817
213818
213821
213821
213820
213822
213820
213821
213821
213818
213817
213822
213818
213821
213818
213821
213822
213821
213821
213821
213821
213821
213814
213821
213818
213818
213818
213821
213817
213818
213818
213822
213818
213818
213820
213821
213820
213821
213821
213821
213821
213818
213817
213822
213818
213821
213817
213821
213822
213821
213821
213821
213821
213821
213814
213822
213818
213818
213818
213821
213818
213818
213818
213822
213818
213818
213820
213821
213820
213821
213821
213821
213821
213818
213817
213822
213818
213821
213818
213820
213822
213821
213821
213821
213820
213821